# vtk DataFile Version 3.0
Segments
ASCII

DATASET POLYDATA
POINTS 34 float
28.000000 59.000000 2.000000
32.000000 59.000000 2.000000
36.000000 59.000000 2.000000
40.000000 59.000000 2.000000
44.000000 59.000000 2.000000
48.000000 57.500000 2.000000
50.750000 60.000000 2.000000
54.750000 65.000000 2.000000
53.000000 68.000000 3.500000
50.500000 72.000000 7.000000
47.500000 75.000000 10.500000
43.000000 78.000000 14.300000
38.000000 80.000000 18.000000
33.000000 80.000000 21.000000
30.000000 79.000000 24.000000
26.000000 77.500000 26.300000
21.000000 74.500000 26.300000
18.000000 72.000000 27.000000
15.000000 68.000000 27.000000
13.000000 65.000000 28.000000
11.000000 61.000000 28.500000
9.500000 57.000000 29.000000
8.500000 53.000000 29.500000
7.500000 49.500000 29.000000
6.750000 46.000000 28.500000
6.000000 43.000000 28.000000
5.500000 39.000000 27.500000
4.500000 35.000000 27.000000
4.400000 32.000000 26.500000
4.200000 29.000000 26.000000
4.800000 25.000000 25.500000
5.700000 22.000000 25.500000
8.500000 18.000000 25.000000
9.500000 16.000000 27.000000

LINES 33 99
2 1 0
2 2 1
2 3 2
2 4 3
2 5 4
2 6 5
2 7 6
2 8 7
2 9 8
2 10 9
2 11 10
2 12 11
2 13 12
2 14 13
2 15 14
2 16 15
2 17 16
2 18 17
2 19 18
2 20 19
2 21 20
2 22 21
2 23 22
2 24 23
2 25 24
2 26 25
2 27 26
2 28 27
2 29 28
2 30 29
2 31 30
2 32 31
2 33 32

POINT_DATA 34
SCALARS radius double
LOOKUP_TABLE default
1.60899999999999998579 
1.60899999999999998579 
1.60899999999999998579 
1.60899999999999998579 
1.60899999999999998579 
1.60899999999999998579 
1.60899999999999998579 
1.60899999999999998579 
1.60899999999999998579 
1.60899999999999998579 
1.60899999999999998579 
1.60899999999999998579 
1.60899999999999998579 
1.60899999999999998579 
1.60899999999999998579 
1.60899999999999998579 
1.60899999999999998579 
1.60899999999999998579 
1.60899999999999998579 
1.60899999999999998579 
1.60899999999999998579 
1.60899999999999998579 
1.60899999999999998579 
1.60899999999999998579 
1.60899999999999998579 
1.60899999999999998579 
1.60899999999999998579 
1.60899999999999998579 
1.60899999999999998579 
1.60899999999999998579 
1.60899999999999998579 
1.60899999999999998579 
1.60899999999999998579 
1.60899999999999998579 

SCALARS resistance double
LOOKUP_TABLE default
0.00618640040000000002 
0.00947121759999999986 
0.00317941470000000000 
0.01142635820000000024 
0.00869266590000000033 
0.00813483849999999988 
0.01347278499999999928 
0.00331565210000000013 
0.00371838580000000011 
0.00392058820000000009 
0.00612512249999999994 
0.00712604329999999998 
0.00362974559999999996 
0.00988956130000000037 
0.00631954839999999962 
0.00215269880000000004 
0.00603497550000000032 
0.00605842569999999990 
0.00761846689999999983 
0.00089197280000000005 
0.00494096039999999959 
0.00947175949999999947 
0.00389616939999999981 
0.01005443079999999989 
0.01246716250000000012 
0.00101452510000000010 
0.00431237269999999989 
0.00741725720000000008 
0.00520967519999999962 
0.01046342240000000014 
0.00143725870000000009 
0.00851459679999999955 
0.00626936820000000006 
0.00000000000000000000 

SCALARS pressure double
LOOKUP_TABLE default
13330.00000000000000000000 
13317.98433400000067194924 
13313.95928500000081839971 
13299.59259399999973538797 
13289.20283799999924667645 
13279.49139599999944039155 
13264.53447899999991932418 
13260.97265800000059243757 
13257.01999699999942095019 
13252.98366999999961990397 
13246.72697200000038719736 
13239.61981200000082026236 
13236.19092400000045017805 
13226.87307599999985541217 
13221.15175799999997252598 
13219.21735699999953794759 
13213.83789400000023306347 
13208.85713199999918288086 
13203.19902999999976600520 
13202.53818200000023352914 
13198.88627699999960896093 
13192.01150100000086240470 
13190.00049600000056670979 
13184.86431000000084168278 
13182.03887799999938579276 
13181.81364899999971385114 
13180.86479499999950348865 
13179.25459899999987101182 
13178.13548300000002200250 
13175.98114899999927729368 
13175.69243599999936122913 
13174.46731399999953282531 
13173.59100199999920732807 
13173.59100199999920732807 

SCALARS perfusion double
LOOKUP_TABLE default
1268.650565 
1268.650565 
1265.971789 
1257.328952 
1195.232443 
1193.808861 
1110.157779 
1074.244386 
1063.004584 
1029.520738 
1021.481259 
997.350124 
944.663501 
942.190175 
905.336598 
898.593299 
891.381156 
822.121507 
742.682521 
740.883156 
739.108258 
725.818337 
516.149165 
510.838081 
226.629941 
222.004312 
220.030467 
217.087857 
214.814856 
205.891917 
200.877848 
143.884846 
139.776834 
124.071362 
