# vtk DataFile Version 3.0
Segments
ASCII

DATASET POLYDATA
POINTS 38 float
32.000000 50.000000 2.000000
37.000000 49.000000 2.000000
42.000000 47.000000 2.000000
46.000000 43.500000 2.000000
50.000000 40.000000 2.000000
61.500000 36.000000 2.000000
61.995789 36.000000 3.172806
61.911180 36.000000 7.382513
61.798163 36.000000 10.106279
61.372430 36.000000 16.242961
60.913107 36.000000 20.671365
60.222874 36.000000 25.734643
59.754304 36.000000 28.573234
58.286678 36.000000 35.733463
56.815360 36.000000 41.335731
53.109283 36.000000 51.738773
52.937464 36.000000 52.132610
51.479460 36.000000 55.236351
50.112940 36.000000 57.801383
48.780128 36.000000 60.025797
47.343292 36.000000 62.152201
45.000000 36.000000 64.000000
42.000000 36.000000 67.000000
61.500000 34.000000 2.000000
61.500000 33.000000 3.000000
61.000000 30.000000 4.000000
61.000000 27.000000 5.000000
60.500000 24.000000 6.000000
59.500000 21.000000 8.000000
58.000000 18.000000 11.000000
56.000000 15.000000 13.000000
52.500000 11.500000 17.000000
50.500000 10.000000 20.000000
49.500000 10.000000 24.000000
46.000000 8.000000 27.000000
43.000000 7.000000 30.000000
43.000000 7.500000 33.000000
40.000000 7.000000 35.000000

LINES 37 111
2 1 0
2 2 1
2 3 2
2 4 3
2 5 4
2 6 5
2 7 6
2 8 7
2 9 8
2 10 9
2 11 10
2 12 11
2 13 12
2 14 13
2 15 14
2 16 15
2 17 16
2 18 17
2 19 18
2 20 19
2 21 20
2 22 21
2 23 5
2 24 23
2 25 24
2 26 25
2 27 26
2 28 27
2 29 28
2 30 29
2 31 30
2 32 31
2 33 32
2 34 33
2 35 34
2 36 35
2 37 36

POINT_DATA 38
SCALARS radius double
LOOKUP_TABLE default
1.58800000000000007816 
1.58800000000000007816 
1.58800000000000007816 
1.58800000000000007816 
1.58800000000000007816 
1.58800000000000007816 
1.58800000000000007816 
1.58800000000000007816 
1.58800000000000007816 
1.58800000000000007816 
1.58800000000000007816 
1.58800000000000007816 
1.58800000000000007816 
1.58800000000000007816 
1.58800000000000007816 
1.58800000000000007816 
1.58800000000000007816 
1.58800000000000007816 
1.58800000000000007816 
1.58800000000000007816 
1.58800000000000007816 
1.58800000000000007816 
1.58800000000000007816 
1.30150000000000010125 
1.30150000000000010125 
1.30150000000000010125 
1.30150000000000010125 
1.30150000000000010125 
1.30150000000000010125 
1.30150000000000010125 
1.30150000000000010125 
1.30150000000000010125 
1.30150000000000010125 
1.30150000000000010125 
1.30150000000000010125 
1.30150000000000010125 
1.30150000000000010125 
1.30150000000000010125 

SCALARS resistance double
LOOKUP_TABLE default
0.00139306369999999996 
0.00852176150000000070 
0.01230727719999999935 
0.00313411779999999991 
0.00492217100000000036 
0.00766029170000000030 
0.00795553700000000037 
0.00706698380000000004 
0.00174701729999999990 
0.00736143019999999960 
0.00006635740000000000 
0.00720683589999999985 
0.01114360080000000031 
0.00635479820000000011 
0.00255636600000000002 
0.00865656119999999932 
0.00494646440000000038 
0.01061905749999999919 
0.01053529389999999927 
0.00974305810000000022 
0.00513931390000000026 
0.00697596470000000010 
0.00000000000000000000 
0.01801462820000000048 
0.01156515450000000084 
0.01586345819999999962 
0.02422927470000000097 
0.00302944339999999986 
0.01154499410000000073 
0.00157096769999999996 
0.01868695219999999893 
0.01522756479999999926 
0.00458884469999999971 
0.00158865070000000007 
0.00861373399999999963 
0.01208311110000000015 
0.01349565429999999983 
304.82254850930002021414 

SCALARS pressure double
LOOKUP_TABLE default
13330.00000000000000000000 
13305.36060999999972409569 
13271.29311500000039814040 
13262.82781500000055530109 
13249.96440099999927042518 
13231.59947099999953934457 
13216.03634199999942211434 
13202.35736499999984516762 
13199.14856499999950756319 
13186.15473999999994703103 
13186.06411099999968428165 
13176.43886500000007799827 
13162.26409299999977520201 
13155.08726600000045436900 
13153.66105699999934586231 
13148.87765500000023166649 
13146.54914599999938218389 
13141.60761900000034074765 
13138.63461500000084924977 
13136.32037499999933061190 
13135.14270500000020547304 
13133.63281300000016926788 
13133.63281300000016926788 
13223.65221899999960442074 
13219.30724100000043108594 
13214.18391399999927671161 
13206.37159199999950942583 
13205.46393700000044191256 
13202.10765999999966879841 
13201.72102900000027148053 
13197.49063100000057602301 
13194.52018400000088149682 
13193.63602299999911338091 
13193.43232600000010279473 
13192.90309700000034354161 
13192.28511900000012246892 
13191.66249699999934819061 
12052.18580800000017916318 

SCALARS perfusion double
LOOKUP_TABLE default
2891.349435 
2891.349435 
2768.077294 
2701.015202 
2613.362027 
2397.419159 
1956.263729 
1935.617401 
1836.730835 
1765.122326 
1365.770447 
1335.571629 
1272.010045 
1129.355625 
557.904988 
552.575257 
470.742247 
465.345133 
282.194692 
237.527025 
229.149284 
216.442017 
209.255966 
441.155430 
375.695708 
322.964027 
322.433202 
299.610865 
290.712789 
246.109900 
226.382445 
195.070420 
192.676049 
128.220242 
61.440209 
51.143906 
46.135004 
3.738164 
