# vtk DataFile Version 1.0
vtk input
ASCII
DATASET STRUCTURED_POINTS
DIMENSIONS 21 28 24
SPACING 3.000000 3.000000 3.000000
ORIGIN 0 0 0
POINT_DATA 14112
SCALARS distance float 1
LOOKUP_TABLE default
0.000000000 0.000000000 0.000000000 0.000000000 0.000000000 0.000000000 0.000000000 0.000000000 0.000000000 0.000000000 0.000000000 0.000000000 0.000000000 0.000000000 0.000000000 0.000000000 0.000000000 0.000000000 0.000000000 0.000000000 0.000000000 
0.000000000 0.000000000 0.000000000 0.000000000 0.000000000 0.000000000 0.000000000 0.000000000 0.000000000 0.000000000 0.000000000 0.000000000 0.000000000 0.000000000 0.000000000 0.000000000 0.000000000 0.000000000 0.000000000 0.000000000 0.000000000 
0.000000000 0.000000000 0.000000000 0.000000000 0.000000000 0.000000000 0.000000000 0.000000000 0.000000000 0.000000000 0.000000000 0.000000000 0.000000000 0.000000000 0.000000000 0.000000000 0.000000000 0.000000000 0.000000000 0.000000000 0.000000000 
0.000000000 0.000000000 0.000000000 0.000000000 0.000000000 0.000000000 0.000000000 0.000000000 0.000000000 0.000000000 0.000000000 0.000000000 0.000000000 0.000000000 0.000000000 0.000000000 0.000000000 0.000000000 0.000000000 0.000000000 0.000000000 
0.000000000 0.000000000 0.000000000 0.000000000 0.000000000 0.000000000 0.000000000 0.000000000 0.000000000 0.000000000 0.000000000 0.000000000 0.000000000 0.000000000 0.000000000 0.000000000 0.000000000 0.000000000 0.000000000 0.000000000 0.000000000 
0.000000000 0.000000000 0.000000000 0.000000000 0.000000000 0.000000000 0.000000000 0.000000000 0.000000000 0.000000000 0.000000000 0.000000000 0.000000000 0.000000000 0.000000000 0.000000000 0.000000000 0.000000000 0.000000000 0.000000000 0.000000000 
0.000000000 0.000000000 0.000000000 0.000000000 0.000000000 0.000000000 0.000000000 0.000000000 0.000000000 0.000000000 0.000000000 0.000000000 0.000000000 0.000000000 0.000000000 0.000000000 0.000000000 0.000000000 0.000000000 0.000000000 0.000000000 
0.000000000 0.000000000 0.000000000 0.000000000 0.000000000 0.000000000 0.000000000 0.000000000 0.000000000 0.000000000 0.000000000 0.000000000 0.000000000 0.000000000 0.000000000 0.000000000 0.000000000 0.000000000 0.000000000 0.000000000 0.000000000 
0.000000000 0.000000000 0.000000000 0.000000000 0.000000000 0.000000000 0.000000000 0.000000000 0.000000000 0.000000000 0.000000000 0.000000000 0.000000000 0.000000000 0.000000000 0.000000000 0.000000000 0.000000000 0.000000000 0.000000000 0.000000000 
0.000000000 0.000000000 0.000000000 0.000000000 0.000000000 0.000000000 0.000000000 0.000000000 0.000000000 0.000000000 0.000000000 0.000000000 0.000000000 0.000000000 0.000000000 0.000000000 0.000000000 0.000000000 0.000000000 0.000000000 0.000000000 
0.000000000 0.000000000 0.000000000 0.000000000 0.000000000 0.000000000 0.000000000 0.000000000 0.000000000 0.000000000 0.000000000 0.000000000 0.000000000 0.000000000 0.000000000 0.000000000 0.000000000 0.000000000 0.000000000 0.000000000 0.000000000 
0.000000000 0.000000000 0.000000000 0.000000000 0.000000000 0.000000000 0.000000000 0.000000000 0.000000000 0.000000000 0.000000000 0.000000000 0.000000000 0.000000000 0.000000000 0.000000000 0.000000000 0.000000000 0.000000000 0.000000000 0.000000000 
0.000000000 0.000000000 0.000000000 0.000000000 0.000000000 0.000000000 0.000000000 0.000000000 0.000000000 0.000000000 0.000000000 0.000000000 0.000000000 0.000000000 0.000000000 0.000000000 0.000000000 0.000000000 0.000000000 0.000000000 0.000000000 
0.000000000 0.000000000 0.000000000 0.000000000 0.000000000 0.000000000 0.000000000 0.000000000 0.000000000 0.000000000 0.000000000 0.000000000 0.000000000 0.000000000 0.000000000 0.000000000 0.000000000 0.000000000 0.000000000 0.000000000 0.000000000 
0.000000000 0.000000000 0.000000000 0.000000000 0.000000000 0.000000000 0.000000000 0.000000000 0.000000000 0.000000000 0.000000000 0.000000000 0.000000000 0.000000000 0.000000000 0.000000000 0.000000000 0.000000000 0.000000000 0.000000000 0.000000000 
0.000000000 0.000000000 0.000000000 0.000000000 0.000000000 0.000000000 0.000000000 0.000000000 0.000000000 0.000000000 0.000000000 0.000000000 0.000000000 0.000000000 0.000000000 0.000000000 0.000000000 0.000000000 0.000000000 0.000000000 0.000000000 
0.000000000 0.000000000 0.000000000 0.000000000 0.000000000 0.000000000 0.000000000 0.000000000 0.000000000 0.000000000 0.000000000 0.000000000 0.000000000 0.000000000 0.000000000 0.000000000 0.000000000 0.000000000 0.000000000 0.000000000 0.000000000 
0.000000000 0.000000000 0.000000000 0.000000000 0.000000000 0.000000000 0.000000000 0.000000000 0.000000000 0.000000000 0.000000000 0.000000000 0.000000000 0.000000000 0.000000000 0.000000000 0.000000000 0.000000000 0.000000000 0.000000000 0.000000000 
0.000000000 0.000000000 0.000000000 0.000000000 0.000000000 0.000000000 0.000000000 0.000000000 0.000000000 0.000000000 0.000000000 0.000000000 0.000000000 0.000000000 0.000000000 0.000000000 0.000000000 0.000000000 0.000000000 0.000000000 0.000000000 
0.000000000 0.000000000 0.000000000 0.000000000 0.000000000 0.000000000 0.000000000 0.000000000 0.000000000 0.000000000 0.000000000 0.000000000 0.000000000 0.000000000 0.000000000 0.000000000 0.000000000 0.000000000 0.000000000 0.000000000 0.000000000 
0.000000000 0.000000000 0.000000000 0.000000000 0.000000000 0.000000000 0.000000000 0.000000000 0.000000000 0.000000000 0.000000000 0.000000000 0.000000000 0.000000000 0.000000000 0.000000000 0.000000000 0.000000000 0.000000000 0.000000000 0.000000000 
0.000000000 0.000000000 0.000000000 0.000000000 0.000000000 0.000000000 0.000000000 0.000000000 0.000000000 0.000000000 0.000000000 0.000000000 0.000000000 0.000000000 0.000000000 0.000000000 0.000000000 0.000000000 0.000000000 0.000000000 0.000000000 
0.000000000 0.000000000 0.000000000 0.000000000 0.000000000 0.000000000 0.000000000 0.000000000 0.000000000 0.000000000 0.000000000 0.000000000 0.000000000 0.000000000 0.000000000 0.000000000 0.000000000 0.000000000 0.000000000 0.000000000 0.000000000 
0.000000000 0.000000000 0.000000000 0.000000000 0.000000000 0.000000000 0.000000000 0.000000000 0.000000000 0.000000000 0.000000000 0.000000000 0.000000000 0.000000000 0.000000000 0.000000000 0.000000000 0.000000000 0.000000000 0.000000000 0.000000000 
0.000000000 0.000000000 0.000000000 0.000000000 0.000000000 0.000000000 0.000000000 0.000000000 0.000000000 0.000000000 0.000000000 0.000000000 0.000000000 0.000000000 0.000000000 0.000000000 0.000000000 0.000000000 0.000000000 0.000000000 0.000000000 
0.000000000 0.000000000 0.000000000 0.000000000 0.000000000 0.000000000 0.000000000 0.000000000 0.000000000 0.000000000 0.000000000 0.000000000 0.000000000 0.000000000 0.000000000 0.000000000 0.000000000 0.000000000 0.000000000 0.000000000 0.000000000 
0.000000000 0.000000000 0.000000000 0.000000000 0.000000000 0.000000000 0.000000000 0.000000000 0.000000000 0.000000000 0.000000000 0.000000000 0.000000000 0.000000000 0.000000000 0.000000000 0.000000000 0.000000000 0.000000000 0.000000000 0.000000000 
0.000000000 0.000000000 0.000000000 0.000000000 0.000000000 0.000000000 0.000000000 0.000000000 0.000000000 0.000000000 0.000000000 0.000000000 0.000000000 0.000000000 0.000000000 0.000000000 0.000000000 0.000000000 0.000000000 0.000000000 0.000000000 
0.000000000 0.000000000 0.000000000 0.000000000 0.000000000 0.000000000 0.000000000 0.000000000 0.000000000 12.715885595 12.519934793 12.617986700 0.000000000 0.000000000 0.000000000 0.000000000 0.000000000 0.000000000 0.000000000 0.000000000 0.000000000 
0.000000000 0.000000000 0.000000000 0.000000000 0.000000000 0.000000000 12.223344961 11.110469136 10.273602062 9.737757517 9.520480019 9.629502833 10.060653217 10.799570107 11.823463738 0.000000000 0.000000000 0.000000000 0.000000000 0.000000000 0.000000000 
0.000000000 0.000000000 0.000000000 0.000000000 12.715860176 11.007224513 9.520475903 8.293443497 7.363866337 6.765258011 6.521526843 6.643584430 7.126016078 7.948734660 9.080729636 10.485123483 12.123936728 0.000000000 0.000000000 0.000000000 0.000000000 
0.000000000 0.000000000 0.000000000 12.421301480 10.379563986 8.520936165 6.885976878 5.521975917 4.478163478 3.800523709 3.523486693 3.662622920 4.209454620 5.135969700 6.398779422 7.948927710 9.737807339 11.722693356 0.000000000 0.000000000 0.000000000 
0.000000000 0.000000000 12.715860176 10.379563986 8.179024066 6.151460633 4.344460112 2.815135940 1.627068521 0.847522836 0.527681301 0.688769227 1.318620620 2.377833503 3.800795526 5.521962779 7.482048421 9.629339849 11.923949848 0.000000000 0.000000000 
0.000000000 0.000000000 11.007224513 8.520936165 6.151460633 3.937529542 1.930367068 0.210773727 0.000000000 0.000000000 0.000000000 0.000000000 0.000000000 0.000000000 1.319485900 3.242892084 5.394168047 7.716333002 10.167281189 12.715902761 0.000000000 
0.000000000 12.223344961 9.520475903 6.885976878 4.344460112 1.930367068 0.000000000 0.000000000 0.000000000 0.000000000 0.000000000 0.000000000 0.000000000 0.000000000 0.000000000 1.162994182 3.523467520 6.026898107 8.633722816 11.315968995 0.000000000 
0.000000000 11.110469136 8.293443497 5.521975917 2.815135940 0.210773727 0.000000000 0.000000000 0.000000000 0.000000000 0.000000000 0.000000000 0.000000000 0.000000000 0.000000000 0.000000000 1.930453955 4.611150966 7.363799440 10.167287495 0.000000000 
0.000000000 10.273602062 7.363866337 4.478163478 1.627068521 0.000000000 0.000000000 0.000000000 0.000000000 0.000000000 0.000000000 0.000000000 0.000000000 0.000000000 0.000000000 0.000000000 0.688925159 3.523330311 6.398743495 9.301555044 12.223541255 
12.715885595 9.737757517 6.765258011 3.800523709 0.847522836 0.000000000 0.000000000 0.000000000 0.000000000 0.000000000 0.000000000 0.000000000 0.000000000 0.000000000 0.000000000 0.000000000 0.152366015 2.814508086 5.776045837 8.746147958 11.722691017 
12.519934793 9.520480019 6.521526843 3.523486693 0.527681301 0.000000000 0.000000000 0.000000000 0.000000000 0.000000000 0.000000000 0.000000000 0.000000000 0.000000000 0.000000000 0.000000000 0.000000000 2.524042916 5.522128504 8.520747071 11.520084986 
12.617986700 9.629502833 6.643584430 3.662622920 0.688769227 0.000000000 0.000000000 0.000000000 0.000000000 0.000000000 0.000000000 0.000000000 0.000000000 0.000000000 0.000000000 0.000000000 0.000000000 2.670025000 5.649180076 8.633681420 11.621688461 
13.007744670 10.060653217 7.126016078 4.209454620 1.318620620 0.000000000 0.000000000 0.000000000 0.000000000 0.000000000 0.000000000 0.000000000 0.000000000 0.000000000 0.000000000 0.000000000 0.368636647 3.242863690 6.151694219 9.080900608 12.024165311 
0.000000000 10.799570107 7.948734660 5.135969700 2.377833503 0.000000000 0.000000000 0.000000000 0.000000000 0.000000000 0.000000000 0.000000000 0.000000000 0.000000000 0.000000000 0.000000000 1.473344006 4.209784625 7.006320089 9.845893504 12.715962238 
0.000000000 11.750794619 9.080729636 6.398779422 3.800795526 1.319485900 0.000000000 0.000000000 0.000000000 0.000000000 0.000000000 0.000000000 0.000000000 0.000000000 0.000000000 0.527555894 2.958780009 5.522104831 8.179235546 10.903546315 12.954453854 
0.000000000 9.385391583 7.647410234 6.846167723 5.521962779 3.242892084 1.162994182 0.000000000 0.000000000 0.000000000 0.000000000 0.000000000 0.000000000 0.000000000 0.527555894 2.524002118 4.743505679 6.855585719 7.253407913 8.730372401 10.854396390 
0.000000000 7.489033416 5.146562229 3.858055520 4.612127664 5.394168047 3.523467520 1.930453955 0.688925159 0.152366015 0.000000000 0.000000000 0.368636647 1.473344006 2.958780009 4.743505679 5.234573971 3.874743277 4.541027402 6.649770567 0.000000000 
0.000000000 6.482240142 3.533716049 0.942671939 2.369487127 4.280729213 5.969923830 4.611150966 3.523330311 2.814508086 2.524042916 2.670025000 3.242863690 4.209784625 5.522104831 4.870890619 3.029300492 1.011166392 2.573125766 5.494160814 0.000000000 
0.000000000 0.000000000 3.873042730 1.015374080 0.113166574 1.832888556 3.364046813 4.633231134 5.598029453 5.776045837 5.522128504 5.649180076 5.845693893 4.990769024 3.818994278 2.369323284 0.687171369 0.142563205 2.917986819 5.787500939 0.000000000 
0.000000000 0.000000000 4.813408118 1.996999265 0.000000000 0.724034345 0.687315906 1.832946871 2.697183042 3.251543625 3.476719955 3.363869719 2.918243775 2.154512252 1.097820700 0.247130114 0.000000000 1.063520024 3.872200460 0.000000000 0.000000000 
0.000000000 0.000000000 5.879079562 3.113576781 0.379505474 0.000000000 0.000000000 0.000000000 0.256623067 0.289553917 0.488033987 0.394390085 0.106475376 0.725773626 0.000000000 0.000000000 0.000000000 2.197836038 4.954463715 0.000000000 0.000000000 
0.000000000 0.000000000 0.000000000 4.370918162 1.706144291 0.000000000 0.000000000 0.000000000 0.000000000 0.000000000 0.000000000 0.000000000 0.000000000 0.000000000 0.000000000 0.000000000 0.827672056 3.477402260 6.171435136 0.000000000 0.000000000 
0.000000000 0.000000000 0.000000000 5.773030229 3.186025886 0.660566001 0.000000000 0.000000000 0.000000000 0.000000000 0.000000000 0.000000000 0.000000000 0.000000000 0.000000000 0.199095826 2.335613916 4.904908640 0.000000000 0.000000000 0.000000000 
0.000000000 0.000000000 0.000000000 0.000000000 4.824916213 2.408746572 0.115819016 0.000000000 0.000000000 0.000000000 0.000000000 0.000000000 0.000000000 0.000000000 0.000000000 1.625622569 4.010088673 6.479935636 0.000000000 0.000000000 0.000000000 
0.000000000 0.000000000 0.000000000 0.000000000 6.619426924 4.327800418 2.163611134 0.184610584 0.000000000 0.000000000 0.000000000 0.000000000 0.000000000 0.000000000 1.480224966 3.590624593 5.843253099 0.000000000 0.000000000 0.000000000 0.000000000 
0.000000000 0.000000000 0.000000000 0.000000000 0.000000000 6.403184453 4.396393451 2.600168615 1.103246402 0.067232405 0.446819419 0.206431834 0.689253332 2.060720090 3.770968443 5.714842565 0.000000000 0.000000000 0.000000000 0.000000000 0.000000000 
0.000000000 0.000000000 0.000000000 0.000000000 0.000000000 0.000000000 6.771811758 5.150937171 3.838686458 2.937801845 2.555052167 2.748573596 3.487095648 4.674772671 6.203333609 0.000000000 0.000000000 0.000000000 0.000000000 0.000000000 0.000000000 
0.000000000 0.000000000 0.000000000 0.000000000 0.000000000 0.000000000 0.000000000 0.000000000 6.647684177 5.874569846 5.552049017 5.714920485 6.344009177 0.000000000 0.000000000 0.000000000 0.000000000 0.000000000 0.000000000 0.000000000 0.000000000 
0.000000000 0.000000000 0.000000000 0.000000000 0.000000000 0.000000000 0.000000000 0.000000000 0.000000000 0.000000000 12.580333383 12.678341320 0.000000000 0.000000000 0.000000000 0.000000000 0.000000000 0.000000000 0.000000000 0.000000000 0.000000000 
0.000000000 0.000000000 0.000000000 0.000000000 0.000000000 0.000000000 12.283884765 11.171556843 10.334806487 9.799046934 9.581806772 9.690809033 10.121888866 10.860698418 11.884203843 0.000000000 0.000000000 0.000000000 0.000000000 0.000000000 0.000000000 
0.000000000 0.000000000 0.000000000 0.000000000 0.000000000 11.068325294 9.581802696 8.355016681 7.425679418 6.827258979 6.583616512 6.705630207 7.187901443 8.010390542 9.142137022 10.546296672 12.184524617 0.000000000 0.000000000 0.000000000 0.000000000 
0.000000000 0.000000000 0.000000000 12.481746965 10.440752568 8.582456598 6.947939191 5.584501342 4.541284926 3.863330420 3.586130624 3.725347966 4.272465735 5.198708815 6.460915894 8.010581471 9.799096281 11.783485768 0.000000000 0.000000000 0.000000000 
0.000000000 0.000000000 0.000000000 10.440752568 8.240624155 6.213696390 4.407523832 2.877452821 1.689279362 0.909439406 0.589125492 0.750459529 1.380774392 2.440120582 3.863596854 5.584488394 7.543826271 9.690647617 11.984638252 0.000000000 0.000000000 
0.000000000 0.000000000 11.068325294 8.582456598 6.213696390 4.000412385 1.992629692 0.268640958 0.000000000 0.000000000 0.000000000 0.000000000 0.000000000 0.000000000 1.381597876 3.305342031 5.456758707 7.778049079 10.228501476 0.000000000 0.000000000 
0.000000000 12.283884765 9.581802696 6.947939191 4.407523832 1.992629692 0.000000000 0.000000000 0.000000000 0.000000000 0.000000000 0.000000000 0.000000000 0.000000000 0.000000000 1.225083210 3.586111855 6.089186240 8.695220454 11.376983341 0.000000000 
0.000000000 11.171556843 8.355016681 5.584501342 2.877452821 0.268640958 0.000000000 0.000000000 0.000000000 0.000000000 0.000000000 0.000000000 0.000000000 0.000000000 0.000000000 0.000000000 1.992713572 4.674235442 7.425613297 10.228507724 0.000000000 
0.000000000 10.334806487 7.425679418 4.541284926 1.689279362 0.000000000 0.000000000 0.000000000 0.000000000 0.000000000 0.000000000 0.000000000 0.000000000 0.000000000 0.000000000 0.000000000 0.750602148 3.585977529 6.460880431 9.362920370 12.284079498 
0.000000000 9.799046934 6.827258979 3.863330420 0.909439406 0.000000000 0.000000000 0.000000000 0.000000000 0.000000000 0.000000000 0.000000000 0.000000000 0.000000000 0.000000000 0.000000000 0.096641266 2.876840702 5.838443114 8.807622310 11.783483449 
12.580333383 9.581806772 6.583616512 3.586130624 0.589125492 0.000000000 0.000000000 0.000000000 0.000000000 0.000000000 0.000000000 0.000000000 0.000000000 0.000000000 0.000000000 0.000000000 0.000000000 2.586357449 5.584651720 8.582269483 11.580985596 
12.678341320 9.690809033 6.705630207 3.725347966 0.750459529 0.000000000 0.000000000 0.000000000 0.000000000 0.000000000 0.000000000 0.000000000 0.000000000 0.000000000 0.000000000 0.000000000 0.000000000 2.732342825 5.711642282 8.695179488 11.682533374 
0.000000000 10.121888866 7.187901443 4.272465735 1.380774392 0.000000000 0.000000000 0.000000000 0.000000000 0.000000000 0.000000000 0.000000000 0.000000000 0.000000000 0.000000000 0.000000000 0.429142832 3.305314274 6.213926869 9.142306282 12.084802513 
0.000000000 10.860698418 8.010390542 5.198708815 2.440120582 0.000000000 0.000000000 0.000000000 0.000000000 0.000000000 0.000000000 0.000000000 0.000000000 0.000000000 0.000000000 0.000000000 1.535534198 4.272789701 7.068242756 9.907163708 12.776271871 
0.000000000 11.778424186 9.142137022 6.460915894 3.863596854 1.381597876 0.000000000 0.000000000 0.000000000 0.000000000 0.000000000 0.000000000 0.000000000 0.000000000 0.000000000 0.589013558 3.021107070 5.584628389 8.240833358 10.964661038 12.991156497 
0.000000000 9.425357005 7.666749536 6.832992473 5.584488394 3.305342031 1.225083210 0.000000000 0.000000000 0.000000000 0.000000000 0.000000000 0.000000000 0.000000000 0.589013558 2.586317772 4.806495726 6.830550596 7.263368057 8.764583234 0.000000000 
0.000000000 7.543645936 5.185086963 3.850561074 4.553922050 5.456758707 3.586111855 1.992713572 0.750602148 0.096641266 0.000000000 0.000000000 0.429142832 1.535534198 3.021107070 4.806495726 5.166894323 3.847718210 4.567897920 6.700796486 0.000000000 
0.000000000 6.553854120 3.599130126 0.965866946 2.294300882 4.205102143 5.893406285 4.674235442 3.585977529 2.876840702 2.586357449 2.732342825 3.305314274 4.272789701 5.584628389 4.794880071 2.955011847 0.955752869 2.635871242 5.564187618 0.000000000 
0.000000000 0.000000000 3.978580960 1.126760263 0.027779421 1.756541436 3.289296355 4.557363851 5.521660339 5.838443114 5.584651720 5.711642282 5.769227883 4.914694162 3.743766474 2.294132071 0.607858011 0.196950724 3.025146563 5.890472906 0.000000000 
0.000000000 0.000000000 4.920444833 2.108036398 0.000000000 0.000000000 0.608020996 1.756602134 2.622493750 3.176932796 3.401832616 3.289115712 2.843833888 2.078957647 1.020286094 0.306081793 0.000000000 1.171365481 3.979847225 0.000000000 0.000000000 
0.000000000 0.000000000 5.988207201 3.229397908 0.506481803 0.000000000 0.000000000 0.000000000 0.313777430 0.204412888 0.407297542 0.313665058 0.119282358 0.000000000 0.000000000 0.000000000 0.000000000 2.311691367 5.066095118 0.000000000 0.000000000 
0.000000000 0.000000000 0.000000000 4.487207410 1.822669706 0.000000000 0.000000000 0.000000000 0.000000000 0.000000000 0.000000000 0.000000000 0.000000000 0.000000000 0.000000000 0.000000000 0.944242292 3.594737108 6.283859185 0.000000000 0.000000000 
0.000000000 0.000000000 0.000000000 5.891055986 3.309411879 0.789067873 0.000000000 0.000000000 0.000000000 0.000000000 0.000000000 0.000000000 0.000000000 0.000000000 0.000000000 0.095761527 2.462472999 5.024491714 0.000000000 0.000000000 0.000000000 
0.000000000 0.000000000 0.000000000 0.000000000 4.952502807 2.544907207 0.253582781 0.000000000 0.000000000 0.000000000 0.000000000 0.000000000 0.000000000 0.000000000 0.000000000 1.761988100 4.138715509 6.602117619 0.000000000 0.000000000 0.000000000 
0.000000000 0.000000000 0.000000000 0.000000000 0.000000000 4.463981108 2.311379532 0.345719888 0.000000000 0.000000000 0.000000000 0.000000000 0.000000000 0.277851908 1.627992289 3.728992472 5.974979660 0.000000000 0.000000000 0.000000000 0.000000000 
0.000000000 0.000000000 0.000000000 0.000000000 0.000000000 6.541576281 4.544134794 2.757218677 1.267833359 0.218679539 0.270223046 0.094226640 0.860202656 2.223446868 3.921373198 5.856588030 0.000000000 0.000000000 0.000000000 0.000000000 0.000000000 
0.000000000 0.000000000 0.000000000 0.000000000 0.000000000 0.000000000 6.919361331 5.308312262 4.005851419 3.111990028 2.733040899 2.924841805 3.656461999 4.835763233 6.353228084 0.000000000 0.000000000 0.000000000 0.000000000 0.000000000 0.000000000 
0.000000000 0.000000000 0.000000000 0.000000000 0.000000000 0.000000000 0.000000000 0.000000000 6.809941845 6.041990811 5.722045007 5.883421265 6.508363322 0.000000000 0.000000000 0.000000000 0.000000000 0.000000000 0.000000000 0.000000000 0.000000000 
0.000000000 0.000000000 0.000000000 0.000000000 0.000000000 0.000000000 0.000000000 0.000000000 0.000000000 0.000000000 12.686103733 0.000000000 0.000000000 0.000000000 0.000000000 0.000000000 0.000000000 0.000000000 0.000000000 0.000000000 0.000000000 
0.000000000 0.000000000 0.000000000 0.000000000 0.000000000 0.000000000 12.389743378 11.277825255 10.441812528 9.906590235 9.689585077 9.798465548 10.229099335 10.967226693 11.990185966 0.000000000 0.000000000 0.000000000 0.000000000 0.000000000 0.000000000 
0.000000000 0.000000000 0.000000000 0.000000000 0.000000000 11.174678151 9.689581068 8.463306423 7.534377860 6.936276014 6.692783562 6.814723093 7.296722641 8.118821416 9.250143055 10.653105375 12.290412305 0.000000000 0.000000000 0.000000000 0.000000000 
0.000000000 0.000000000 0.000000000 12.587547462 10.547658707 8.690656158 7.056890829 5.694400952 4.651170126 3.973577717 3.696565466 3.835679337 4.382484840 5.308941570 6.570161974 8.119008691 9.906638782 11.889499728 0.000000000 0.000000000 0.000000000 
0.000000000 0.000000000 0.000000000 10.547658707 8.348959843 6.323109838 4.517466427 2.988505180 1.802530504 1.024936072 0.704220737 0.865725156 1.495170106 2.551739370 3.973835202 5.694388329 7.652464797 9.798306770 12.090588377 0.000000000 0.000000000 
0.000000000 0.000000000 11.174678151 8.690656158 6.323109838 4.110582805 2.105103194 0.380975850 0.000000000 0.000000000 0.000000000 0.000000000 0.000000000 0.132000545 1.495926047 3.415996706 5.566767321 7.886582527 10.335609229 0.000000000 0.000000000 
0.000000000 12.389743378 9.689581068 7.056890829 4.517466427 2.105103194 0.130677613 0.000000000 0.000000000 0.000000000 0.000000000 0.000000000 0.000000000 0.000000000 0.000000000 1.340219666 3.696547367 6.198687818 8.803381047 11.483133969 0.000000000 
0.000000000 11.277825255 8.463306423 5.694400952 2.988505180 0.380975850 0.000000000 0.000000000 0.000000000 0.000000000 0.000000000 0.000000000 0.000000000 0.000000000 0.000000000 0.000000000 2.105182115 4.784154575 7.534313075 10.335615379 0.000000000 
0.000000000 10.441812528 7.534377860 4.651170126 1.802530504 0.000000000 0.000000000 0.000000000 0.000000000 0.000000000 0.000000000 0.000000000 0.000000000 0.000000000 0.000000000 0.000000000 0.865847989 3.696417838 6.570127304 9.470854266 12.389935347 
0.000000000 9.906590235 6.936276014 3.973577717 1.024936072 0.000000000 0.000000000 0.000000000 0.000000000 0.000000000 0.000000000 0.000000000 0.000000000 0.000000000 0.000000000 0.000000000 0.071121691 2.987919356 5.948127916 8.915743055 11.889497443 
12.686103733 9.689585077 6.692783562 3.696565466 0.704220737 0.000000000 0.000000000 0.000000000 0.000000000 0.000000000 0.000000000 0.000000000 0.000000000 0.000000000 0.000000000 0.000000000 0.000000000 2.697792772 5.694547565 8.690472454 11.687065712 
0.000000000 9.798465548 6.814723093 3.835679337 0.865725156 0.000000000 0.000000000 0.000000000 0.000000000 0.000000000 0.000000000 0.000000000 0.000000000 0.000000000 0.000000000 0.000000000 0.138675371 2.843579616 5.821436067 8.803340821 11.788578246 
0.000000000 10.229099335 7.296722641 4.382484840 1.495170106 0.000000000 0.000000000 0.000000000 0.000000000 0.000000000 0.000000000 0.000000000 0.000000000 0.000000000 0.000000000 0.000000000 0.543364176 3.415970010 6.323335004 9.250309360 12.190720328 
0.000000000 10.967226693 8.118821416 5.308941570 2.551739370 0.132000545 0.000000000 0.000000000 0.000000000 0.000000000 0.000000000 0.000000000 0.000000000 0.000000000 0.000000000 0.000000000 1.649309722 4.382798775 7.177127203 10.014591856 12.881987522 
0.000000000 11.892426767 9.250143055 6.570161974 3.973835202 1.495926047 0.000000000 0.000000000 0.000000000 0.000000000 0.000000000 0.000000000 0.000000000 0.000000000 0.000000000 0.704127705 3.132011630 5.694524819 8.349165122 11.071101183 13.125472011 
0.000000000 9.566990338 7.762409578 6.852170231 5.694388329 3.415996706 1.340219666 0.000000000 0.000000000 0.000000000 0.000000000 0.000000000 0.000000000 0.000000000 0.704127705 2.697754963 4.916500015 6.819959490 7.336954539 8.893998177 0.000000000 
0.000000000 7.720368858 5.324705831 3.883322098 4.447321529 5.566767321 3.696547367 2.105182115 0.865847989 0.071121691 0.000000000 0.138675371 0.543364176 1.649309722 3.132011630 4.916500015 5.033714270 3.828327305 4.682776060 6.869925274 0.000000000 
0.000000000 6.756680909 3.798430049 1.085209769 2.162585734 4.072433881 5.759568936 4.784154575 3.696417838 2.987919356 2.697792772 2.843579616 3.415970010 4.382798775 5.694524819 4.661703159 2.823174179 0.868089675 2.831933759 5.765805658 0.000000000 
0.000000000 0.000000000 4.165642149 1.312117442 0.146474962 1.625074120 3.157821292 4.424376525 5.388014800 5.948127916 5.694547565 5.821436067 5.635459087 4.781433790 3.611642499 2.162407433 0.478700922 0.367515633 3.212675521 6.072500114 0.000000000 
0.000000000 0.000000000 5.107683327 2.300623043 0.000000000 0.000000000 0.478906949 1.625139438 2.490701883 3.045524410 3.270167079 3.157633987 2.712015409 1.947389056 0.889615415 0.440058716 0.000000000 1.375232828 4.171148707 0.000000000 0.000000000 
0.000000000 0.000000000 6.181147495 3.425742820 0.699242618 0.000000000 0.000000000 0.000000000 0.445422008 0.095692684 0.282108312 0.197339921 0.247823544 0.000000000 0.000000000 0.000000000 0.215082699 2.514575134 5.258781190 0.000000000 0.000000000 
0.000000000 0.000000000 0.000000000 4.690408931 2.038983581 0.000000000 0.000000000 0.000000000 0.000000000 0.000000000 0.000000000 0.000000000 0.000000000 0.000000000 0.000000000 0.000000000 1.164468507 3.802515973 6.481724494 0.000000000 0.000000000 
0.000000000 0.000000000 0.000000000 6.098387902 3.528985824 1.018518186 0.000000000 0.000000000 0.000000000 0.000000000 0.000000000 0.000000000 0.000000000 0.000000000 0.000000000 0.218314170 2.682797682 5.235715395 0.000000000 0.000000000 0.000000000 
0.000000000 0.000000000 0.000000000 0.000000000 5.174866435 2.778271668 0.495341345 0.000000000 0.000000000 0.000000000 0.000000000 0.000000000 0.000000000 0.000000000 0.257188993 2.001206313 4.366104917 0.000000000 0.000000000 0.000000000 0.000000000 
0.000000000 0.000000000 0.000000000 0.000000000 0.000000000 4.705057962 2.565545487 0.610977085 0.000000000 0.000000000 0.000000000 0.000000000 0.000000000 0.078376285 1.889588430 3.975152686 6.205955834 0.000000000 0.000000000 0.000000000 0.000000000 
0.000000000 0.000000000 0.000000000 0.000000000 0.000000000 6.785205325 4.803379934 3.034314943 1.566337511 0.527097032 0.097084662 0.308089524 1.165770936 2.506017782 4.186421807 6.104621359 0.000000000 0.000000000 0.000000000 0.000000000 0.000000000 
0.000000000 0.000000000 0.000000000 0.000000000 0.000000000 0.000000000 0.000000000 5.582905219 4.296285459 3.416998206 3.043843329 3.232312873 3.953693217 5.114769088 6.617177120 0.000000000 0.000000000 0.000000000 0.000000000 0.000000000 0.000000000 
0.000000000 0.000000000 0.000000000 0.000000000 0.000000000 0.000000000 0.000000000 0.000000000 7.093584972 6.335161370 6.019617768 6.178433401 6.795201267 0.000000000 0.000000000 0.000000000 0.000000000 0.000000000 0.000000000 0.000000000 0.000000000 
0.000000000 0.000000000 0.000000000 0.000000000 0.000000000 0.000000000 0.000000000 0.000000000 0.000000000 0.000000000 0.000000000 0.000000000 0.000000000 0.000000000 0.000000000 0.000000000 0.000000000 0.000000000 0.000000000 0.000000000 0.000000000 
0.000000000 0.000000000 0.000000000 0.000000000 0.000000000 0.000000000 12.542186735 11.430983999 10.595433817 10.060546394 9.843687474 9.952489991 10.382846197 11.120547805 12.142999641 0.000000000 0.000000000 0.000000000 0.000000000 0.000000000 0.000000000 
0.000000000 0.000000000 0.000000000 0.000000000 0.000000000 11.327889480 9.843683560 8.618807387 7.690533482 7.092939150 6.849683807 6.971505722 7.453073637 8.274548882 9.404841591 10.806603210 12.442979872 0.000000000 0.000000000 0.000000000 0.000000000 
0.000000000 0.000000000 0.000000000 0.000000000 10.701217472 8.846012797 7.213449344 5.852180303 4.809389393 4.132677806 3.856114867 3.994987647 4.541027376 5.466513893 6.727187025 8.274731088 10.060593803 12.042358992 0.000000000 0.000000000 0.000000000 
0.000000000 0.000000000 0.000000000 10.701217472 8.504534523 6.480398853 4.675832301 3.149528279 1.962571794 1.183749023 0.864120639 1.024919545 1.654416109 2.712891709 4.132923256 5.852168131 7.808525278 9.952334960 12.243356235 0.000000000 0.000000000 